        19  EXT
         1         1  UNK       O1             11.2610000000        6.4930000000      -11.0450000000  HETA      1               0.0000000000
         2         1  UNK       O2             12.1120000000        1.4330000000       -9.7150000000  HETA      1               0.0000000000
         3         1  UNK       O3             13.5310000000        1.6180000000       -7.4750000000  HETA      1               0.0000000000
         4         1  UNK       O4              8.6330000000        5.7830000000      -15.8270000000  HETA      1               0.0000000000
         5         1  UNK       O5             11.2660000000        8.5100000000      -12.8710000000  HETA      1               0.0000000000
         6         1  UNK       O6             11.9050000000        5.7820000000       -9.0680000000  HETA      1               0.0000000000
         7         1  UNK       C1             10.6440000000        3.2810000000       -9.1920000000  HETA      1               0.0000000000
         8         1  UNK       C2             12.0500000000        2.6660000000       -9.0400000000  HETA      1               0.0000000000
         9         1  UNK       C3             10.6210000000        4.3330000000      -10.2800000000  HETA      1               0.0000000000
        10         1  UNK       C4              9.9260000000        5.1260000000      -12.4590000000  HETA      1               0.0000000000
        11         1  UNK       C5              9.9240000000        4.1240000000      -11.4780000000  HETA      1               0.0000000000
        12         1  UNK       C6             10.6140000000        6.3300000000      -12.1920000000  HETA      1               0.0000000000
        13         1  UNK       C7             12.4480000000        2.5030000000       -7.5670000000  HETA      1               0.0000000000
        14         1  UNK       C8             11.2970000000        5.5590000000      -10.1000000000  HETA      1               0.0000000000
        15         1  UNK       C9              9.2640000000        4.9560000000      -13.6850000000  HETA      1               0.0000000000
        16         1  UNK       C10            10.6190000000        7.3560000000      -13.1410000000  HETA      1               0.0000000000
        17         1  UNK       C11             9.2770000000        5.9820000000      -14.6450000000  HETA      1               0.0000000000
        18         1  UNK       C12             9.9560000000        7.1860000000      -14.3600000000  HETA      1               0.0000000000
        19         1  UNK       C13             7.5630000000        6.5350000000      -16.2760000000  HETA      1               0.0000000000
